# Force coefficients
# liftDir     : (0.000000e+00 1.000000e+00 0.000000e+00)
# dragDir     : (1.000000e+00 0.000000e+00 0.000000e+00)
# pitchAxis   : (0.000000e+00 0.000000e+00 1.000000e+00)
# magUInf     : 1.000000e+00
# lRef        : 1.000000e+00
# Aref        : 2.000000e+00
# CofR        : (0.000000e+00 0.000000e+00 0.000000e+00)
# Time        	Cm            	Cd            	Cl            	Cl(f)         	Cl(r)         
20            	8.659037e-02	1.424243e+00	1.053062e+01	5.351901e+00	5.178720e+00
20.001        	8.658753e-02	1.423870e+00	1.053282e+01	5.352998e+00	5.179823e+00
20.002        	8.658451e-02	1.424481e+00	1.053269e+01	5.352930e+00	5.179761e+00
20.003        	8.658136e-02	1.425380e+00	1.053362e+01	5.353394e+00	5.180231e+00
20.004        	8.657826e-02	1.426132e+00	1.053398e+01	5.353570e+00	5.180413e+00
20.005        	8.657543e-02	1.426438e+00	1.053299e+01	5.353072e+00	5.179921e+00
20.006        	8.657249e-02	1.426491e+00	1.053398e+01	5.353561e+00	5.180416e+00
20.007        	8.656969e-02	1.427218e+00	1.053499e+01	5.354064e+00	5.180925e+00
20.008        	8.656683e-02	1.426451e+00	1.053498e+01	5.354056e+00	5.180923e+00
20.009        	8.656423e-02	1.425864e+00	1.053616e+01	5.354642e+00	5.181514e+00
20.01         	8.656124e-02	1.425468e+00	1.053661e+01	5.354868e+00	5.181745e+00
20.011        	8.655877e-02	1.424806e+00	1.053676e+01	5.354939e+00	5.181822e+00
20.012        	8.655623e-02	1.425688e+00	1.053803e+01	5.355570e+00	5.182457e+00
20.013        	8.655363e-02	1.425352e+00	1.053697e+01	5.355038e+00	5.181931e+00
20.014        	8.655098e-02	1.425511e+00	1.053791e+01	5.355507e+00	5.182405e+00
20.015        	8.654858e-02	1.425634e+00	1.053886e+01	5.355977e+00	5.182880e+00
20.016        	8.654610e-02	1.426305e+00	1.053968e+01	5.356384e+00	5.183292e+00
20.017        	8.654333e-02	1.427014e+00	1.053914e+01	5.356114e+00	5.183028e+00
20.018        	8.654096e-02	1.428621e+00	1.054089e+01	5.356984e+00	5.183902e+00
20.019        	8.653846e-02	1.428142e+00	1.054004e+01	5.356557e+00	5.183480e+00
20.02         	8.653621e-02	1.427922e+00	1.053942e+01	5.356248e+00	5.183176e+00
20.021        	8.653424e-02	1.427671e+00	1.054003e+01	5.356551e+00	5.183482e+00
20.022        	8.653209e-02	1.427125e+00	1.054040e+01	5.356733e+00	5.183669e+00
20.023        	8.652975e-02	1.428008e+00	1.054063e+01	5.356843e+00	5.183783e+00
20.024        	8.652782e-02	1.428023e+00	1.054249e+01	5.357775e+00	5.184720e+00
20.025        	8.652607e-02	1.428136e+00	1.054274e+01	5.357896e+00	5.184843e+00
20.026        	8.652443e-02	1.428482e+00	1.054390e+01	5.358474e+00	5.185425e+00
20.027        	8.652265e-02	1.428982e+00	1.054395e+01	5.358500e+00	5.185455e+00
20.028        	8.652056e-02	1.430098e+00	1.054347e+01	5.358253e+00	5.185212e+00
20.029        	8.651878e-02	1.430735e+00	1.054472e+01	5.358881e+00	5.185843e+00
20.03         	8.651718e-02	1.430713e+00	1.054389e+01	5.358463e+00	5.185429e+00
20.031        	8.651559e-02	1.431675e+00	1.054542e+01	5.359224e+00	5.186193e+00
20.032        	8.651418e-02	1.430804e+00	1.054571e+01	5.359367e+00	5.186339e+00
20.033        	8.651249e-02	1.430943e+00	1.054587e+01	5.359450e+00	5.186425e+00
20.034        	8.651073e-02	1.432040e+00	1.054569e+01	5.359353e+00	5.186332e+00
20.035        	8.650933e-02	1.431524e+00	1.054527e+01	5.359145e+00	5.186126e+00
20.036        	8.650783e-02	1.431558e+00	1.054535e+01	5.359183e+00	5.186167e+00
20.037        	8.650668e-02	1.431581e+00	1.054708e+01	5.360046e+00	5.187033e+00
20.038        	8.650538e-02	1.431401e+00	1.054716e+01	5.360087e+00	5.187076e+00
20.039        	8.650424e-02	1.431547e+00	1.054829e+01	5.360651e+00	5.187642e+00
20.04         	8.650281e-02	1.432472e+00	1.054871e+01	5.360856e+00	5.187850e+00
20.041        	8.650154e-02	1.432443e+00	1.054894e+01	5.360973e+00	5.187970e+00
20.042        	8.650051e-02	1.432588e+00	1.054837e+01	5.360686e+00	5.187685e+00
20.043        	8.649959e-02	1.432580e+00	1.054939e+01	5.361194e+00	5.188194e+00
20.044        	8.649837e-02	1.432907e+00	1.054834e+01	5.360670e+00	5.187673e+00
20.045        	8.649751e-02	1.433971e+00	1.054956e+01	5.361279e+00	5.188284e+00
20.046        	8.649641e-02	1.433696e+00	1.054841e+01	5.360701e+00	5.187709e+00
20.047        	8.649549e-02	1.433130e+00	1.055026e+01	5.361625e+00	5.188634e+00
20.048        	8.649476e-02	1.433751e+00	1.055100e+01	5.361995e+00	5.189006e+00
20.049        	8.649392e-02	1.433069e+00	1.055113e+01	5.362057e+00	5.189069e+00
20.05         	8.649301e-02	1.433095e+00	1.055162e+01	5.362302e+00	5.189316e+00
20.051        	8.649239e-02	1.433559e+00	1.055206e+01	5.362524e+00	5.189539e+00
20.052        	8.649143e-02	1.433572e+00	1.055204e+01	5.362513e+00	5.189530e+00
20.053        	8.649062e-02	1.432783e+00	1.055197e+01	5.362473e+00	5.189492e+00
20.054        	8.648985e-02	1.433728e+00	1.055169e+01	5.362332e+00	5.189353e+00
20.055        	8.648903e-02	1.435285e+00	1.055232e+01	5.362648e+00	5.189670e+00
20.056        	8.648825e-02	1.435234e+00	1.055227e+01	5.362623e+00	5.189647e+00
20.057        	8.648733e-02	1.434921e+00	1.055203e+01	5.362502e+00	5.189528e+00
20.058        	8.648665e-02	1.435491e+00	1.055183e+01	5.362403e+00	5.189430e+00
20.059        	8.648612e-02	1.435415e+00	1.055488e+01	5.363929e+00	5.190956e+00
20.06         	8.648564e-02	1.436018e+00	1.055636e+01	5.364665e+00	5.191694e+00
20.061        	8.648483e-02	1.435585e+00	1.055590e+01	5.364436e+00	5.191466e+00
20.062        	8.648460e-02	1.436425e+00	1.055562e+01	5.364293e+00	5.191324e+00
20.063        	8.648404e-02	1.435881e+00	1.055694e+01	5.364952e+00	5.191984e+00
20.064        	8.648351e-02	1.435332e+00	1.055636e+01	5.364666e+00	5.191699e+00
20.065        	8.648262e-02	1.435931e+00	1.055562e+01	5.364290e+00	5.191325e+00
20.066        	8.648188e-02	1.435903e+00	1.055722e+01	5.365091e+00	5.192127e+00
20.067        	8.648116e-02	1.435057e+00	1.055789e+01	5.365424e+00	5.192462e+00
20.068        	8.648042e-02	1.436382e+00	1.055804e+01	5.365500e+00	5.192540e+00
20.069        	8.648012e-02	1.437192e+00	1.055960e+01	5.366282e+00	5.193322e+00
20.07         	8.647985e-02	1.437776e+00	1.055860e+01	5.365780e+00	5.192820e+00
20.071        	8.647962e-02	1.438115e+00	1.055867e+01	5.365815e+00	5.192856e+00
20.072        	8.647904e-02	1.438998e+00	1.055929e+01	5.366122e+00	5.193164e+00
20.073        	8.647860e-02	1.438962e+00	1.055926e+01	5.366109e+00	5.193152e+00
20.074        	8.647815e-02	1.438728e+00	1.056013e+01	5.366544e+00	5.193587e+00
20.075        	8.647781e-02	1.438121e+00	1.056103e+01	5.366993e+00	5.194037e+00
20.076        	8.647728e-02	1.437584e+00	1.056179e+01	5.367375e+00	5.194420e+00
20.077        	8.647711e-02	1.438804e+00	1.056235e+01	5.367650e+00	5.194696e+00
20.078        	8.647703e-02	1.439323e+00	1.056261e+01	5.367784e+00	5.194830e+00
20.079        	8.647664e-02	1.440059e+00	1.056115e+01	5.367054e+00	5.194101e+00
20.08         	8.647619e-02	1.439227e+00	1.056161e+01	5.367279e+00	5.194327e+00
20.081        	8.647601e-02	1.440295e+00	1.056173e+01	5.367343e+00	5.194391e+00
20.082        	8.647545e-02	1.439914e+00	1.056298e+01	5.367963e+00	5.195012e+00
20.083        	8.647546e-02	1.439908e+00	1.056309e+01	5.368019e+00	5.195068e+00
20.084        	8.647551e-02	1.439537e+00	1.056490e+01	5.368926e+00	5.195975e+00
20.085        	8.647517e-02	1.439942e+00	1.056422e+01	5.368587e+00	5.195637e+00
20.086        	8.647479e-02	1.439612e+00	1.056422e+01	5.368583e+00	5.195633e+00
20.087        	8.647436e-02	1.440400e+00	1.056416e+01	5.368553e+00	5.195604e+00
20.088        	8.647443e-02	1.440289e+00	1.056535e+01	5.369147e+00	5.196198e+00
20.089        	8.647453e-02	1.439624e+00	1.056443e+01	5.368688e+00	5.195739e+00
20.09         	8.647440e-02	1.440975e+00	1.056602e+01	5.369485e+00	5.196536e+00
20.091        	8.647447e-02	1.440606e+00	1.056620e+01	5.369573e+00	5.196624e+00
20.092        	8.647421e-02	1.440962e+00	1.056640e+01	5.369674e+00	5.196725e+00
20.093        	8.647413e-02	1.441334e+00	1.056643e+01	5.369691e+00	5.196743e+00
20.094        	8.647369e-02	1.440983e+00	1.056598e+01	5.369466e+00	5.196518e+00
20.095        	8.647412e-02	1.441501e+00	1.056533e+01	5.369140e+00	5.196192e+00
20.096        	8.647459e-02	1.442472e+00	1.056541e+01	5.369177e+00	5.196228e+00
20.097        	8.647455e-02	1.442696e+00	1.056565e+01	5.369300e+00	5.196351e+00
20.098        	8.647458e-02	1.442578e+00	1.056668e+01	5.369814e+00	5.196865e+00
20.099        	8.647454e-02	1.442495e+00	1.056543e+01	5.369190e+00	5.196241e+00
20.1          	8.647475e-02	1.442088e+00	1.056742e+01	5.370184e+00	5.197235e+00
20.101        	8.647516e-02	1.442860e+00	1.056834e+01	5.370646e+00	5.197695e+00
20.102        	8.647561e-02	1.443704e+00	1.056829e+01	5.370621e+00	5.197670e+00
20.103        	8.647563e-02	1.444317e+00	1.056913e+01	5.371043e+00	5.198092e+00
20.104        	8.647529e-02	1.443076e+00	1.057007e+01	5.371512e+00	5.198561e+00
20.105        	8.647548e-02	1.443925e+00	1.056957e+01	5.371260e+00	5.198309e+00
20.106        	8.647569e-02	1.444734e+00	1.056955e+01	5.371253e+00	5.198302e+00
20.107        	8.647606e-02	1.444775e+00	1.057035e+01	5.371652e+00	5.198700e+00
20.108        	8.647619e-02	1.445014e+00	1.057057e+01	5.371759e+00	5.198807e+00
20.109        	8.647661e-02	1.445201e+00	1.056990e+01	5.371429e+00	5.198476e+00
20.11         	8.647657e-02	1.443883e+00	1.057174e+01	5.372346e+00	5.199392e+00
20.111        	8.647678e-02	1.443908e+00	1.057099e+01	5.371970e+00	5.199017e+00
20.112        	8.647711e-02	1.443960e+00	1.057279e+01	5.372873e+00	5.199919e+00
20.113        	8.647787e-02	1.445164e+00	1.057189e+01	5.372422e+00	5.199466e+00
20.114        	8.647808e-02	1.445443e+00	1.057137e+01	5.372165e+00	5.199209e+00
20.115        	8.647823e-02	1.445411e+00	1.057105e+01	5.372003e+00	5.199047e+00
20.116        	8.647886e-02	1.446437e+00	1.057169e+01	5.372323e+00	5.199365e+00
20.117        	8.647898e-02	1.446795e+00	1.057342e+01	5.373188e+00	5.200230e+00
20.118        	8.647903e-02	1.446346e+00	1.057305e+01	5.373004e+00	5.200046e+00
20.119        	8.647905e-02	1.446414e+00	1.057217e+01	5.372563e+00	5.199605e+00
20.12         	8.647950e-02	1.446896e+00	1.057363e+01	5.373293e+00	5.200334e+00
20.121        	8.647935e-02	1.445848e+00	1.057325e+01	5.373103e+00	5.200145e+00
20.122        	8.647976e-02	1.445255e+00	1.057381e+01	5.373387e+00	5.200427e+00
20.123        	8.647984e-02	1.445780e+00	1.057417e+01	5.373567e+00	5.200607e+00
20.124        	8.648044e-02	1.446697e+00	1.057483e+01	5.373895e+00	5.200934e+00
20.125        	8.648086e-02	1.447126e+00	1.057419e+01	5.373575e+00	5.200613e+00
20.126        	8.648114e-02	1.447473e+00	1.057420e+01	5.373581e+00	5.200619e+00
20.127        	8.648174e-02	1.448003e+00	1.057538e+01	5.374169e+00	5.201206e+00
20.128        	8.648187e-02	1.448918e+00	1.057565e+01	5.374305e+00	5.201341e+00
20.129        	8.648222e-02	1.448251e+00	1.057667e+01	5.374818e+00	5.201853e+00
20.13         	8.648250e-02	1.448786e+00	1.057708e+01	5.375020e+00	5.202055e+00
20.131        	8.648290e-02	1.449502e+00	1.057656e+01	5.374764e+00	5.201798e+00
20.132        	8.648342e-02	1.449040e+00	1.057562e+01	5.374295e+00	5.201328e+00
20.133        	8.648392e-02	1.449139e+00	1.057666e+01	5.374815e+00	5.201848e+00
20.134        	8.648408e-02	1.449362e+00	1.057479e+01	5.373880e+00	5.200912e+00
20.135        	8.648472e-02	1.449951e+00	1.057649e+01	5.374730e+00	5.201761e+00
20.136        	8.648503e-02	1.450154e+00	1.057566e+01	5.374313e+00	5.201343e+00
20.137        	8.648504e-02	1.448044e+00	1.057498e+01	5.373976e+00	5.201006e+00
20.138        	8.648574e-02	1.448915e+00	1.057759e+01	5.375282e+00	5.202311e+00
20.139        	8.648567e-02	1.448001e+00	1.057787e+01	5.375422e+00	5.202450e+00
20.14         	8.648619e-02	1.448232e+00	1.057834e+01	5.375654e+00	5.202682e+00
20.141        	8.648653e-02	1.448346e+00	1.057691e+01	5.374940e+00	5.201967e+00
20.142        	8.648690e-02	1.449565e+00	1.057664e+01	5.374805e+00	5.201832e+00
20.143        	8.648744e-02	1.450160e+00	1.057793e+01	5.375452e+00	5.202477e+00
20.144        	8.648761e-02	1.450075e+00	1.057753e+01	5.375254e+00	5.202278e+00
20.145        	8.648857e-02	1.450646e+00	1.057846e+01	5.375717e+00	5.202740e+00
20.146        	8.648885e-02	1.451155e+00	1.057882e+01	5.375897e+00	5.202919e+00
20.147        	8.648927e-02	1.450916e+00	1.057890e+01	5.375940e+00	5.202961e+00
20.148        	8.649002e-02	1.451804e+00	1.058038e+01	5.376682e+00	5.203702e+00
20.149        	8.649024e-02	1.450838e+00	1.058045e+01	5.376715e+00	5.203735e+00
20.15         	8.649091e-02	1.451754e+00	1.057982e+01	5.376403e+00	5.203421e+00
20.151        	8.649106e-02	1.451478e+00	1.058042e+01	5.376703e+00	5.203721e+00
20.152        	8.649128e-02	1.451793e+00	1.057961e+01	5.376299e+00	5.203316e+00
20.153        	8.649171e-02	1.451816e+00	1.058118e+01	5.377082e+00	5.204098e+00
20.154        	8.649260e-02	1.452604e+00	1.058152e+01	5.377253e+00	5.204268e+00
20.155        	8.649275e-02	1.452130e+00	1.058217e+01	5.377578e+00	5.204592e+00
20.156        	8.649318e-02	1.452585e+00	1.058281e+01	5.377899e+00	5.204913e+00
20.157        	8.649346e-02	1.452324e+00	1.058241e+01	5.377700e+00	5.204713e+00
20.158        	8.649368e-02	1.452573e+00	1.058310e+01	5.378042e+00	5.205054e+00
20.159        	8.649415e-02	1.452613e+00	1.058282e+01	5.377903e+00	5.204915e+00
20.16         	8.649458e-02	1.453883e+00	1.058191e+01	5.377450e+00	5.204461e+00
20.161        	8.649485e-02	1.453138e+00	1.058294e+01	5.377962e+00	5.204973e+00
20.162        	8.649510e-02	1.452987e+00	1.058265e+01	5.377819e+00	5.204829e+00
20.163        	8.649542e-02	1.453273e+00	1.058198e+01	5.377488e+00	5.204497e+00
20.164        	8.649544e-02	1.452752e+00	1.058338e+01	5.378186e+00	5.205195e+00
20.165        	8.649588e-02	1.453435e+00	1.058409e+01	5.378541e+00	5.205550e+00
20.166        	8.649639e-02	1.453052e+00	1.058481e+01	5.378903e+00	5.205911e+00
20.167        	8.649673e-02	1.453589e+00	1.058338e+01	5.378188e+00	5.205194e+00
20.168        	8.649728e-02	1.455396e+00	1.058384e+01	5.378416e+00	5.205421e+00
20.169        	8.649731e-02	1.454556e+00	1.058442e+01	5.378709e+00	5.205715e+00
20.17         	8.649757e-02	1.454828e+00	1.058458e+01	5.378787e+00	5.205792e+00
20.171        	8.649782e-02	1.454891e+00	1.058434e+01	5.378670e+00	5.205675e+00
20.172        	8.649801e-02	1.455448e+00	1.058436e+01	5.378676e+00	5.205680e+00
20.173        	8.649826e-02	1.455691e+00	1.058659e+01	5.379791e+00	5.206795e+00
20.174        	8.649831e-02	1.455875e+00	1.058633e+01	5.379661e+00	5.206664e+00
20.175        	8.649846e-02	1.455551e+00	1.058629e+01	5.379645e+00	5.206648e+00
20.176        	8.649839e-02	1.455183e+00	1.058742e+01	5.380208e+00	5.207211e+00
20.177        	8.649860e-02	1.454856e+00	1.058686e+01	5.379928e+00	5.206930e+00
20.178        	8.649913e-02	1.455608e+00	1.058664e+01	5.379818e+00	5.206820e+00
20.179        	8.649912e-02	1.455470e+00	1.058753e+01	5.380265e+00	5.207267e+00
20.18         	8.649909e-02	1.455319e+00	1.058815e+01	5.380572e+00	5.207574e+00
20.181        	8.649935e-02	1.455961e+00	1.058802e+01	5.380511e+00	5.207512e+00
20.182        	8.649976e-02	1.456930e+00	1.058706e+01	5.380028e+00	5.207028e+00
20.183        	8.649958e-02	1.456490e+00	1.058833e+01	5.380663e+00	5.207664e+00
20.184        	8.649976e-02	1.456677e+00	1.058780e+01	5.380397e+00	5.207398e+00
20.185        	8.649999e-02	1.458136e+00	1.058925e+01	5.381126e+00	5.208126e+00
20.186        	8.650014e-02	1.458054e+00	1.058723e+01	5.380115e+00	5.207115e+00
20.187        	8.650037e-02	1.457944e+00	1.058778e+01	5.380389e+00	5.207389e+00
20.188        	8.650017e-02	1.456923e+00	1.058911e+01	5.381057e+00	5.208056e+00
20.189        	8.650022e-02	1.456748e+00	1.058921e+01	5.381107e+00	5.208107e+00
20.19         	8.650021e-02	1.456391e+00	1.058966e+01	5.381330e+00	5.208330e+00
20.191        	8.650003e-02	1.457370e+00	1.058976e+01	5.381380e+00	5.208380e+00
20.192        	8.649997e-02	1.456375e+00	1.058843e+01	5.380717e+00	5.207717e+00
20.193        	8.649993e-02	1.456289e+00	1.058944e+01	5.381221e+00	5.208222e+00
20.194        	8.650020e-02	1.457096e+00	1.058983e+01	5.381414e+00	5.208414e+00
20.195        	8.650028e-02	1.458201e+00	1.058924e+01	5.381120e+00	5.208119e+00
20.196        	8.650025e-02	1.458479e+00	1.059001e+01	5.381506e+00	5.208505e+00
20.197        	8.650027e-02	1.458255e+00	1.058939e+01	5.381193e+00	5.208193e+00
20.198        	8.649975e-02	1.457508e+00	1.058928e+01	5.381138e+00	5.208139e+00
20.199        	8.649954e-02	1.457708e+00	1.058967e+01	5.381334e+00	5.208335e+00
20.2          	8.649967e-02	1.458167e+00	1.059048e+01	5.381741e+00	5.208742e+00
20.201        	8.649986e-02	1.459340e+00	1.059177e+01	5.382387e+00	5.209388e+00
20.202        	8.649962e-02	1.458880e+00	1.059363e+01	5.383317e+00	5.210318e+00
20.203        	8.649937e-02	1.459489e+00	1.059213e+01	5.382563e+00	5.209565e+00
20.204        	8.649934e-02	1.459445e+00	1.059301e+01	5.383004e+00	5.210005e+00
20.205        	8.649925e-02	1.459660e+00	1.059301e+01	5.383005e+00	5.210007e+00
20.206        	8.649906e-02	1.459304e+00	1.059319e+01	5.383094e+00	5.210096e+00
20.207        	8.649902e-02	1.459712e+00	1.059307e+01	5.383032e+00	5.210034e+00
20.208        	8.649903e-02	1.460157e+00	1.059291e+01	5.382956e+00	5.209958e+00
20.209        	8.649877e-02	1.459609e+00	1.059314e+01	5.383069e+00	5.210071e+00
20.21         	8.649865e-02	1.459910e+00	1.059198e+01	5.382490e+00	5.209492e+00
20.211        	8.649863e-02	1.460294e+00	1.059266e+01	5.382829e+00	5.209832e+00
20.212        	8.649866e-02	1.460929e+00	1.059408e+01	5.383538e+00	5.210540e+00
20.213        	8.649819e-02	1.459861e+00	1.059357e+01	5.383285e+00	5.210288e+00
20.214        	8.649812e-02	1.460590e+00	1.059360e+01	5.383300e+00	5.210304e+00
20.215        	8.649781e-02	1.460526e+00	1.059481e+01	5.383905e+00	5.210909e+00
20.216        	8.649749e-02	1.460056e+00	1.059519e+01	5.384090e+00	5.211095e+00
20.217        	8.649728e-02	1.460437e+00	1.059537e+01	5.384184e+00	5.211190e+00
20.218        	8.649721e-02	1.460645e+00	1.059547e+01	5.384232e+00	5.211237e+00
20.219        	8.649719e-02	1.461547e+00	1.059580e+01	5.384400e+00	5.211405e+00
20.22         	8.649689e-02	1.460680e+00	1.059700e+01	5.384996e+00	5.212002e+00
20.221        	8.649650e-02	1.460789e+00	1.059739e+01	5.385191e+00	5.212198e+00
20.222        	8.649679e-02	1.461737e+00	1.059554e+01	5.384265e+00	5.211272e+00
20.223        	8.649626e-02	1.461007e+00	1.059648e+01	5.384735e+00	5.211742e+00
20.224        	8.649583e-02	1.460941e+00	1.059590e+01	5.384444e+00	5.211452e+00
20.225        	8.649551e-02	1.461456e+00	1.059525e+01	5.384120e+00	5.211129e+00
20.226        	8.649522e-02	1.461385e+00	1.059552e+01	5.384253e+00	5.211263e+00
20.227        	8.649502e-02	1.462075e+00	1.059520e+01	5.384095e+00	5.211105e+00
20.228        	8.649472e-02	1.461680e+00	1.059532e+01	5.384153e+00	5.211163e+00
20.229        	8.649421e-02	1.460795e+00	1.059539e+01	5.384189e+00	5.211200e+00
20.23         	8.649378e-02	1.460851e+00	1.059732e+01	5.385155e+00	5.212167e+00
20.231        	8.649375e-02	1.461791e+00	1.059699e+01	5.384990e+00	5.212003e+00
20.232        	8.649350e-02	1.461909e+00	1.059728e+01	5.385133e+00	5.212146e+00
20.233        	8.649320e-02	1.462139e+00	1.059713e+01	5.385057e+00	5.212071e+00
20.234        	8.649283e-02	1.463158e+00	1.059806e+01	5.385525e+00	5.212539e+00
20.235        	8.649222e-02	1.463486e+00	1.059851e+01	5.385746e+00	5.212761e+00
20.236        	8.649213e-02	1.464047e+00	1.059749e+01	5.385238e+00	5.212254e+00
20.237        	8.649144e-02	1.463255e+00	1.059952e+01	5.386252e+00	5.213270e+00
20.238        	8.649123e-02	1.463872e+00	1.059911e+01	5.386047e+00	5.213064e+00
20.239        	8.649085e-02	1.464368e+00	1.059828e+01	5.385632e+00	5.212651e+00
20.24         	8.649021e-02	1.463827e+00	1.059896e+01	5.385971e+00	5.212991e+00
20.241        	8.649001e-02	1.464283e+00	1.059919e+01	5.386084e+00	5.213104e+00
20.242        	8.648931e-02	1.463950e+00	1.059957e+01	5.386276e+00	5.213297e+00
20.243        	8.648890e-02	1.463228e+00	1.059983e+01	5.386404e+00	5.213426e+00
20.244        	8.648887e-02	1.464916e+00	1.059973e+01	5.386356e+00	5.213378e+00
20.245        	8.648845e-02	1.464795e+00	1.060165e+01	5.387315e+00	5.214339e+00
20.246        	8.648822e-02	1.465055e+00	1.060009e+01	5.386534e+00	5.213558e+00
20.247        	8.648761e-02	1.464763e+00	1.060214e+01	5.387556e+00	5.214580e+00
20.248        	8.648719e-02	1.465495e+00	1.060173e+01	5.387352e+00	5.214377e+00
20.249        	8.648687e-02	1.465295e+00	1.059989e+01	5.386431e+00	5.213457e+00
20.25         	8.648643e-02	1.465717e+00	1.060023e+01	5.386603e+00	5.213631e+00
20.251        	8.648611e-02	1.465988e+00	1.060092e+01	5.386945e+00	5.213972e+00
20.252        	8.648566e-02	1.466613e+00	1.060098e+01	5.386977e+00	5.214005e+00
20.253        	8.648546e-02	1.466168e+00	1.060030e+01	5.386635e+00	5.213664e+00
20.254        	8.648451e-02	1.465139e+00	1.060177e+01	5.387371e+00	5.214402e+00
20.255        	8.648428e-02	1.465410e+00	1.060035e+01	5.386658e+00	5.213690e+00
20.256        	8.648369e-02	1.464998e+00	1.060100e+01	5.386984e+00	5.214017e+00
20.257        	8.648304e-02	1.465492e+00	1.060162e+01	5.387293e+00	5.214327e+00
20.258        	8.648286e-02	1.466474e+00	1.060228e+01	5.387623e+00	5.214658e+00
20.259        	8.648243e-02	1.466800e+00	1.060350e+01	5.388233e+00	5.215269e+00
20.26         	8.648211e-02	1.466377e+00	1.060161e+01	5.387289e+00	5.214325e+00
20.261        	8.648158e-02	1.466894e+00	1.060237e+01	5.387668e+00	5.214705e+00
20.262        	8.648135e-02	1.466977e+00	1.060288e+01	5.387921e+00	5.214958e+00
20.263        	8.648096e-02	1.467358e+00	1.060246e+01	5.387710e+00	5.214749e+00
20.264        	8.648082e-02	1.467017e+00	1.060130e+01	5.387130e+00	5.214168e+00
20.265        	8.648061e-02	1.467322e+00	1.060130e+01	5.387131e+00	5.214170e+00
20.266        	8.648008e-02	1.467527e+00	1.060191e+01	5.387436e+00	5.214475e+00
20.267        	8.647983e-02	1.467286e+00	1.060307e+01	5.388014e+00	5.215054e+00
20.268        	8.647953e-02	1.467430e+00	1.060337e+01	5.388163e+00	5.215204e+00
20.269        	8.647902e-02	1.467311e+00	1.060458e+01	5.388767e+00	5.215809e+00
20.27         	8.647876e-02	1.466965e+00	1.060498e+01	5.388969e+00	5.216011e+00
20.271        	8.647874e-02	1.466652e+00	1.060557e+01	5.389263e+00	5.216305e+00
20.272        	8.647836e-02	1.467122e+00	1.060619e+01	5.389573e+00	5.216617e+00
20.273        	8.647810e-02	1.466616e+00	1.060600e+01	5.389478e+00	5.216522e+00
20.274        	8.647803e-02	1.466446e+00	1.060615e+01	5.389555e+00	5.216599e+00
20.275        	8.647809e-02	1.467175e+00	1.060483e+01	5.388893e+00	5.215936e+00
20.276        	8.647782e-02	1.468006e+00	1.060550e+01	5.389230e+00	5.216274e+00
20.277        	8.647816e-02	1.467203e+00	1.060393e+01	5.388443e+00	5.215487e+00
20.278        	8.647789e-02	1.467684e+00	1.060479e+01	5.388873e+00	5.215917e+00
20.279        	8.647773e-02	1.468426e+00	1.060503e+01	5.388992e+00	5.216037e+00
20.28         	8.647772e-02	1.468370e+00	1.060399e+01	5.388471e+00	5.215515e+00
20.281        	8.647759e-02	1.468300e+00	1.060532e+01	5.389136e+00	5.216181e+00
20.282        	8.647740e-02	1.468380e+00	1.060647e+01	5.389711e+00	5.216756e+00
20.283        	8.647707e-02	1.468006e+00	1.060812e+01	5.390535e+00	5.217581e+00
20.284        	8.647696e-02	1.468440e+00	1.060779e+01	5.390373e+00	5.217419e+00
20.285        	8.647675e-02	1.467357e+00	1.060769e+01	5.390321e+00	5.217368e+00
20.286        	8.647689e-02	1.466857e+00	1.060766e+01	5.390306e+00	5.217352e+00
20.287        	8.647672e-02	1.467093e+00	1.060824e+01	5.390595e+00	5.217641e+00
20.288        	8.647686e-02	1.468306e+00	1.060825e+01	5.390603e+00	5.217649e+00
20.289        	8.647704e-02	1.468347e+00	1.060834e+01	5.390647e+00	5.217693e+00
20.29         	8.647719e-02	1.468122e+00	1.060708e+01	5.390015e+00	5.217061e+00
20.291        	8.647708e-02	1.468472e+00	1.060737e+01	5.390161e+00	5.217207e+00
20.292        	8.647710e-02	1.469321e+00	1.060813e+01	5.390541e+00	5.217586e+00
20.293        	8.647699e-02	1.469655e+00	1.060926e+01	5.391105e+00	5.218151e+00
20.294        	8.647715e-02	1.470006e+00	1.060799e+01	5.390470e+00	5.217516e+00
20.295        	8.647692e-02	1.470536e+00	1.060994e+01	5.391446e+00	5.218492e+00
20.296        	8.647678e-02	1.470350e+00	1.061017e+01	5.391564e+00	5.218610e+00
20.297        	8.647707e-02	1.468668e+00	1.060940e+01	5.391179e+00	5.218225e+00
20.298        	8.647720e-02	1.469630e+00	1.060965e+01	5.391304e+00	5.218350e+00
20.299        	8.647735e-02	1.469514e+00	1.060926e+01	5.391107e+00	5.218152e+00
20.3          	8.647743e-02	1.469628e+00	1.060955e+01	5.391255e+00	5.218300e+00
20.301        	8.647732e-02	1.470121e+00	1.061018e+01	5.391566e+00	5.218611e+00
20.302        	8.647741e-02	1.469564e+00	1.061015e+01	5.391553e+00	5.218598e+00
20.303        	8.647748e-02	1.468914e+00	1.061066e+01	5.391806e+00	5.218851e+00
20.304        	8.647761e-02	1.469982e+00	1.060888e+01	5.390917e+00	5.217962e+00
20.305        	8.647748e-02	1.470849e+00	1.060875e+01	5.390853e+00	5.217898e+00
20.306        	8.647768e-02	1.470795e+00	1.060812e+01	5.390537e+00	5.217582e+00
20.307        	8.647760e-02	1.472008e+00	1.060949e+01	5.391223e+00	5.218268e+00
20.308        	8.647771e-02	1.471955e+00	1.061001e+01	5.391485e+00	5.218529e+00
20.309        	8.647780e-02	1.471685e+00	1.061036e+01	5.391658e+00	5.218702e+00
20.31         	8.647789e-02	1.471654e+00	1.060947e+01	5.391212e+00	5.218256e+00
20.311        	8.647785e-02	1.471615e+00	1.061102e+01	5.391986e+00	5.219030e+00
20.312        	8.647782e-02	1.471676e+00	1.060995e+01	5.391454e+00	5.218499e+00
20.313        	8.647775e-02	1.472606e+00	1.061262e+01	5.392788e+00	5.219833e+00
20.314        	8.647786e-02	1.471360e+00	1.061164e+01	5.392296e+00	5.219340e+00
20.315        	8.647774e-02	1.472051e+00	1.061175e+01	5.392355e+00	5.219399e+00
20.316        	8.647792e-02	1.471686e+00	1.061140e+01	5.392178e+00	5.219222e+00
20.317        	8.647794e-02	1.472195e+00	1.061125e+01	5.392103e+00	5.219148e+00
20.318        	8.647837e-02	1.471247e+00	1.061090e+01	5.391930e+00	5.218973e+00
20.319        	8.647804e-02	1.471343e+00	1.061288e+01	5.392916e+00	5.219960e+00
20.32         	8.647795e-02	1.472211e+00	1.061264e+01	5.392800e+00	5.219844e+00
20.321        	8.647784e-02	1.471649e+00	1.061207e+01	5.392515e+00	5.219559e+00
20.322        	8.647790e-02	1.471811e+00	1.061138e+01	5.392168e+00	5.219212e+00
20.323        	8.647805e-02	1.472035e+00	1.061180e+01	5.392379e+00	5.219423e+00
20.324        	8.647800e-02	1.471650e+00	1.061291e+01	5.392932e+00	5.219976e+00
20.325        	8.647819e-02	1.471609e+00	1.061168e+01	5.392317e+00	5.219361e+00
20.326        	8.647799e-02	1.472530e+00	1.061314e+01	5.393047e+00	5.220091e+00
20.327        	8.647799e-02	1.472679e+00	1.061363e+01	5.393294e+00	5.220338e+00
20.328        	8.647801e-02	1.473076e+00	1.061444e+01	5.393696e+00	5.220740e+00
20.329        	8.647831e-02	1.473636e+00	1.061517e+01	5.394064e+00	5.221107e+00
20.33         	8.647816e-02	1.473553e+00	1.061447e+01	5.393715e+00	5.220759e+00
20.331        	8.647805e-02	1.473182e+00	1.061492e+01	5.393936e+00	5.220980e+00
20.332        	8.647812e-02	1.472366e+00	1.061348e+01	5.393217e+00	5.220261e+00
20.333        	8.647806e-02	1.472237e+00	1.061366e+01	5.393307e+00	5.220351e+00
20.334        	8.647800e-02	1.472672e+00	1.061369e+01	5.393323e+00	5.220367e+00
20.335        	8.647778e-02	1.473101e+00	1.061343e+01	5.393191e+00	5.220235e+00
20.336        	8.647752e-02	1.473210e+00	1.061395e+01	5.393450e+00	5.220495e+00
20.337        	8.647748e-02	1.472829e+00	1.061398e+01	5.393467e+00	5.220512e+00
20.338        	8.647740e-02	1.473642e+00	1.061436e+01	5.393655e+00	5.220700e+00
20.339        	8.647740e-02	1.473132e+00	1.061486e+01	5.393905e+00	5.220951e+00
20.34         	8.647732e-02	1.473497e+00	1.061498e+01	5.393968e+00	5.221014e+00
20.341        	8.647704e-02	1.473037e+00	1.061453e+01	5.393740e+00	5.220786e+00
20.342        	8.647700e-02	1.474575e+00	1.061538e+01	5.394165e+00	5.221211e+00
20.343        	8.647689e-02	1.475425e+00	1.061542e+01	5.394188e+00	5.221234e+00
20.344        	8.647689e-02	1.474912e+00	1.061513e+01	5.394043e+00	5.221089e+00
20.345        	8.647682e-02	1.474096e+00	1.061515e+01	5.394049e+00	5.221096e+00
20.346        	8.647670e-02	1.474820e+00	1.061442e+01	5.393689e+00	5.220736e+00
20.347        	8.647654e-02	1.474820e+00	1.061467e+01	5.393813e+00	5.220859e+00
20.348        	8.647638e-02	1.475092e+00	1.061448e+01	5.393718e+00	5.220765e+00
20.349        	8.647625e-02	1.474602e+00	1.061456e+01	5.393758e+00	5.220806e+00
20.35         	8.647607e-02	1.475098e+00	1.061504e+01	5.393997e+00	5.221045e+00
20.351        	8.647614e-02	1.475053e+00	1.061674e+01	5.394845e+00	5.221893e+00
20.352        	8.647617e-02	1.474237e+00	1.061629e+01	5.394620e+00	5.221668e+00
20.353        	8.647600e-02	1.474156e+00	1.061666e+01	5.394804e+00	5.221852e+00
20.354        	8.647615e-02	1.473864e+00	1.061629e+01	5.394621e+00	5.221669e+00
20.355        	8.647597e-02	1.475149e+00	1.061624e+01	5.394597e+00	5.221645e+00
20.356        	8.647606e-02	1.475207e+00	1.061586e+01	5.394408e+00	5.221456e+00
20.357        	8.647562e-02	1.475922e+00	1.061726e+01	5.395107e+00	5.222155e+00
20.358        	8.647583e-02	1.475297e+00	1.061613e+01	5.394543e+00	5.221591e+00
20.359        	8.647568e-02	1.475491e+00	1.061598e+01	5.394465e+00	5.221514e+00
20.36         	8.647566e-02	1.475507e+00	1.061625e+01	5.394601e+00	5.221650e+00
20.361        	8.647536e-02	1.475491e+00	1.061633e+01	5.394640e+00	5.221689e+00
20.362        	8.647543e-02	1.474458e+00	1.061682e+01	5.394886e+00	5.221935e+00
20.363        	8.647504e-02	1.474991e+00	1.061768e+01	5.395314e+00	5.222364e+00
20.364        	8.647508e-02	1.474518e+00	1.061691e+01	5.394931e+00	5.221980e+00
20.365        	8.647470e-02	1.475311e+00	1.061687e+01	5.394912e+00	5.221963e+00
20.366        	8.647459e-02	1.475924e+00	1.061700e+01	5.394973e+00	5.222024e+00
20.367        	8.647451e-02	1.476024e+00	1.061798e+01	5.395463e+00	5.222514e+00
20.368        	8.647453e-02	1.476078e+00	1.061769e+01	5.395321e+00	5.222372e+00